
#(C) 2024 by FIZ Karlsruhe - Leibniz Institute for Information Infrastructure.  All rights reserved.
data_19798-ICSD
_database_code_ICSD 19798
_audit_creation_date 2021-08-01
_chemical_name_common 'Barium titanate'
_chemical_formula_structural 'Ba Ti O3'
_chemical_formula_sum 'Ba1 O3 Ti1'
_chemical_name_structure_type BaTiO3(orh)
_exptl_crystal_density_diffrn 6.01
_diffrn_ambient_temperature 225.
_citation_title

;
Neutron total scattering studies of group II titanates (ATiO$_3$, A$^{2+}$ =
Mg, Ca, Sr, Ba)
;
loop_
_citation_id
_citation_journal_full
_citation_year
_citation_journal_volume
_citation_page_first
_citation_page_last
_citation_journal_id_ASTM
primary 'Scientific Reports' 2020 10 1 10 SRCEC3
loop_
_citation_author_citation_id
_citation_author_name
primary 'Culbertson, Charles M.'
primary 'Flak, Alexander T.'
primary 'Yatskin, Michael'
primary 'Cheong, Paul H.-Y.'
primary 'Cann, David P.'
primary 'Dolgos, Michelle R.'
_cell_length_a 3.9886(4)
_cell_length_b 5.6749(3)
_cell_length_c 5.6926(1)
_cell_angle_alpha 90.
_cell_angle_beta 90.
_cell_angle_gamma 90.
_cell_volume 128.85
_cell_formula_units_Z 2
_space_group_name_H-M_alt 'A m m 2'
_space_group_IT_number 38
loop_
_space_group_symop_id
_space_group_symop_operation_xyz
1 'x, -y, z'
2 '-x, y, z'
3 '-x, -y, z'
4 'x, y, z'
5 'x, -y+1/2, z+1/2'
6 '-x, y+1/2, z+1/2'
7 '-x, -y+1/2, z+1/2'
8 'x, y+1/2, z+1/2'
loop_
_atom_type_symbol
_atom_type_oxidation_number
Ba2+ 2
Ti4+ 4
O2- -2
loop_
_atom_site_label
_atom_site_type_symbol
_atom_site_symmetry_multiplicity
_atom_site_Wyckoff_symbol
_atom_site_fract_x
_atom_site_fract_y
_atom_site_fract_z
_atom_site_B_iso_or_equiv
_atom_site_occupancy
Ba1 Ba2+ 2 a 0 0 0 0.292(7) 1.
Ti1 Ti4+ 2 b 0.5 0 0.511(3) 0.596(5) 1.
O1 O2- 2 a 0 0 0.487(1) 0.341(4) 1.
O2 O2- 4 e 0.5 0.255(4) 0.233(8) 0.516(1) 1.
#End of TTdata_19798-ICSD